name,measured log(solubility:mol/L),SMILES,MolWt,HeavyAtomCount,RingCount,LogP,MaxPartialCharge,MinPartialCharge,NOCount
Tetrachloroethylene,-2.54,ClC(=C(Cl)Cl)Cl,165.834,6.0,0.0,3.0682,0.1364417932720134,-0.0682208966360067,0.0
2-Octanone,-2.05,CCCCCCC(=O)C,128.21499999999995,9.0,0.0,2.5458000000000007,0.1293399502768705,-0.3000310234947065,1.0
Diosgenin,-7.32,C1C(O)CCC2(C)CC3CCC4(C)C5(C)CC6OCC(C)CC6OC5CC4C3C=C21,414.63000000000017,30.0,6.0,5.508800000000006,0.0843867817647286,-0.3927966863933903,3.0
1-Bromopropane,-1.73,CCCBr,122.993,4.0,0.0,1.7913,0.0028627972390594,-0.0928186496107851,0.0
2-Methylpentanol,-1.11,CCCC(C)CO,102.177,7.0,0.0,1.4149,0.0456123173735677,-0.3960990127001897,1.0
Cyanazine,-3.15,CCNc1nc(Cl)nc(NC(C)(C)C#N)n1,240.698,16.0,1.0,1.6708799999999997,0.2295436883079249,-0.3543182605196529,6.0
Cycloheptyl-5-spirobarbituric acid,-3.168,O=C2NC(=O)C1(CCCCCC1)C(=O)N2 ,210.233,15.0,2.0,0.6929999999999998,0.3276318712886519,-0.2768227178142301,5.0
"3,4-PCB",-6.39,Clc1ccc(cc1Cl)c2ccccc2 ,223.102,14.0,2.0,4.660400000000002,0.059798045712087,-0.0827124402899407,0.0
Oxamyl,0.106,CNC(=O)ON=C(SC)C(=O)N(C)C,219.266,14.0,0.0,0.1070999999999999,0.4326274323796574,-0.3428620580718493,6.0
"1,3-Dibromobenzene",-3.54,Brc1cccc(Br)c1,235.906,8.0,1.0,3.2116000000000007,0.0185975419932702,-0.0600242808775241,0.0
"3,3-Dimethyl-2-butanone",-0.72,CC(=O)C(C)(C)C,100.161,7.0,0.0,1.6215,0.1346329099598094,-0.2994356871699787,1.0
Pteridine,0.02,c2cnc1ncncc1n2,132.12599999999998,10.0,2.0,0.4197999999999998,0.1807559318552541,-0.24966012948719,4.0
"1,3,5-Tribromobenzene",-5.6,Brc1cc(Br)cc(Br)c1,314.802,9.0,1.0,3.974100000000001,0.0197198192016534,-0.0507561475039078,0.0
"2,2'-PCB",-5.27,Clc1ccccc1c2ccccc2Cl ,223.102,14.0,2.0,4.660400000000002,0.0484422506972842,-0.0836633050268088,0.0
Nerol,-2.46,CC(C)=CCC/C(C)=C\CO,154.253,11.0,0.0,2.6714000000000016,0.0614435105477409,-0.3922973699172158,1.0
1-Nonyne ,-4.24,CCCCCCCC#C,124.227,9.0,0.0,2.980100000000002,0.0086009394212409,-0.1201093157896907,0.0
brompyrazone,-3.127,c1ccccc1n2ncc(N)c(Br)c2(=O),266.098,15.0,2.0,1.5771999999999995,0.28740287532928,-0.3963433479745785,4.0
borneol,-2.32,CC1(C)C2CCC1(C)C(O)C2,154.253,11.0,2.0,2.1935,0.0601383993146424,-0.3925295894080083,1.0
1-Bromonapthalene,-4.35,Brc1cccc2ccccc12,207.07,11.0,2.0,3.6023000000000014,0.0253223144007498,-0.0616284071061861,0.0
Linuron,-3.592,CON(C)C(=O)Nc1ccc(Cl)c(Cl)c1,249.097,15.0,1.0,3.0185000000000013,0.3449823227468337,-0.3060098096798753,4.0
Butylate,-3.68,CCSC(=O)N(CC(C)C)CC(C)C,217.378,14.0,0.0,3.4735000000000023,0.2811360844976009,-0.3330966517120431,2.0
Butethal,-1.661,CCCCC1(CC)C(=O)NC(=O)NC1=O,212.249,15.0,1.0,0.9389999999999998,0.3276318689524743,-0.276822878792226,5.0
Ethyl pentanoate,-1.75,CCCOC(=O)CCC,130.18699999999998,9.0,0.0,1.7397,0.3052667249101076,-0.4656861843536989,2.0
Isopentyl formate,-1.52,CC(C)CCOC=O,116.15999999999998,8.0,0.0,1.2055,0.2925756882855401,-0.4678902314688661,2.0
chlorpyrifos,-5.67,CCOP(=S)(OCC)Oc1nc(Cl)c(Cl)cc1Cl ,350.591,18.0,1.0,4.718100000000002,0.3813559433952989,-0.4039620319976707,4.0
"2,3,4'-PCB",-6.26,Clc1ccc(cc1)c2cccc(Cl)c2Cl ,257.547,15.0,2.0,5.313800000000001,0.0670134080054469,-0.0843437391001589,0.0
Barbital,-2.4,O=C1NC(=O)NC(=O)C1(CC)CC,184.195,13.0,1.0,0.1587999999999993,0.327631866616471,-0.2768230397499671,5.0
Mebendazole,-3.88,COC(=O)Nc2nc1ccc(cc1[nH]2)C(=O)c3ccccc3,295.298,22.0,3.0,2.972200000000001,0.4131899633730632,-0.4525718571728653,6.0
Methyl acrylate,-0.22,COC(=O)C=C,86.09,6.0,0.0,0.3453999999999999,0.3293620268351236,-0.4658665816196197,2.0
2-Chloroanisole,-2.46,COc1ccccc1Cl,142.58499999999998,9.0,1.0,2.3486,0.1369464447787765,-0.4951997741070457,1.0
tubercidin,-1.95,Nc1ncnc2n(ccc12)C3OC(CO)C(O)C3O ,266.257,19.0,3.0,-1.3750000000000009,0.1640065278201305,-0.3935668539603635,8.0
Amitrole,0.522,Nc1nc[nH]n1,84.082,6.0,1.0,-0.6131000000000002,0.2386636265250787,-0.3665132167598525,4.0
Hexylbenzene ,-5.21,CCCCCCc1ccccc1,162.276,12.0,1.0,3.809400000000003,-0.0278872293182178,-0.0653823817435943,0.0
"trans-1,4-Dimethylcyclohexane",-4.47,C/C1CCC(\C)CC1,112.216,8.0,1.0,2.832600000000001,-0.0442601605410084,-0.0625093764618009,0.0
thiamylal,-3.46,CCCC(C)C1(CC=C)C(=O)NC(=S)NC1=O ,254.355,17.0,1.0,1.5159999999999998,0.241932085484114,-0.3018886552522452,4.0
Phenol,0.0,c1ccccc1O,94.113,7.0,1.0,1.3922,0.1150748194752798,-0.5079669948663066,1.0
2-Methy-2-Butene,-2.56,CC=C(C)C,70.13499999999999,5.0,0.0,1.9725,-0.0442229703928102,-0.0890131727511756,0.0
prednisolone acetate,-4.37,CC(=O)OCC(=O)C3(O)CCC4C2CCC1=CC(=O)C=CC1(C)C2C(O)CC34C ,402.48700000000014,29.0,4.0,2.1284,0.3025656724874257,-0.4577419270681254,6.0
Benzotriazole,-0.78,c2ccc1[nH]nnc1c2,119.127,9.0,2.0,0.9578999999999998,0.112418874259168,-0.2575461374808697,3.0
Thiometon,-3.091,CCSCCSP(=S)(OC)OC,246.359,12.0,0.0,2.990000000000001,0.2463239396102001,-0.3250397359140985,2.0
"2,4-Dimethylpentane",-4.26,CC(C)CC(C)C,100.20499999999998,7.0,0.0,2.688500000000001,-0.0468893168594784,-0.0627637873860695,0.0
1-Bromoheptane,-4.43,CCCCCCCBr,179.101,8.0,0.0,3.351700000000002,0.0031253024002491,-0.0928078039875933,0.0
Cyclooctyl-5-spirobarbituric acid,-2.982,O=C2NC(=O)C1(CCCCCCC1)C(=O)N2,224.26,16.0,2.0,1.0831,0.3276318712886519,-0.2768227178142301,5.0
"2,2',3,3'-PCB",-7.28,Clc1cccc(c1Cl)c2cccc(Cl)c2Cl,291.992,16.0,2.0,5.967200000000002,0.0670678673689266,-0.0826892505595436,0.0
Diethyl phthalate ,-2.35,CCOC(=O)c1ccccc1C(=O)OCC,222.23999999999995,16.0,1.0,2.04,0.3384958727330426,-0.462372421938292,4.0
trans-2-Heptene ,-3.82,CCCC/C=C/C,98.18899999999998,7.0,0.0,2.752700000000001,-0.0350938732946524,-0.0916642009609957,0.0
guanine,-3.583,Nc2nc1[nH]cnc1c(=O)[nH]2 ,151.129,11.0,2.0,-0.7716000000000003,0.2799763185807996,-0.3692516492028574,6.0
Diazinon,-3.64,CCOP(=S)(OCC)Oc1cc(C)nc(n1)C(C)C,304.35200000000003,19.0,1.0,3.5847200000000026,0.3813041331392303,-0.4055367547130938,5.0
phenothrin,-5.24,CC(C)=CC3C(C(=O)OCc2cccc(Oc1ccccc1)c2)C3(C)C ,350.4580000000001,26.0,3.0,5.760500000000005,0.3099561141717101,-0.4605632734160004,3.0
Dulcin,-2.17,CCOc1ccc(NC(N)=O)cc1,180.207,13.0,1.0,1.5759,0.3161185555385829,-0.4938874337286278,4.0
Ethyl formate,0.15,CCOC=O,74.07900000000001,5.0,0.0,0.1793,0.2925654199437486,-0.4681951816440358,2.0
Fenoxycarb,-4.7,CCOC(=O)NCCOc2ccc(Oc1ccccc1)cc2,301.34200000000004,22.0,2.0,3.6038000000000014,0.406734524982305,-0.4917555656983283,5.0