element,metal,mass,density,atomic_radius,electronegativity,first_ionization,neutrons,protons,electrons,1s,2s,2p,3s,3p,4s,3d,4p,5s,4d,5p,6s,4f,5d,6p
H,no,1.007,8.99e-05,0.79,2.2,13.5984,0,1,1,1,0,0,0,0,0,0,0,0,0,0,0,0,0,0
He,no,4.002,0.000179,0.49,4.16,24.5874,2,2,2,2,0,0,0,0,0,0,0,0,0,0,0,0,0,0
Li,yes,6.941,0.534,2.1,0.98,5.3917,4,3,3,2,1,0,0,0,0,0,0,0,0,0,0,0,0,0
Be,yes,9.012,1.85,1.4,1.57,9.3227,5,4,4,2,2,0,0,0,0,0,0,0,0,0,0,0,0,0
B,no,10.811,2.34,1.2,2.04,8.298,6,5,5,2,2,1,0,0,0,0,0,0,0,0,0,0,0,0
C,no,12.011,2.27,0.91,2.55,11.2603,6,6,6,2,2,2,0,0,0,0,0,0,0,0,0,0,0,0
N,no,14.007,0.00125,0.75,3.04,14.5341,7,7,7,2,2,3,0,0,0,0,0,0,0,0,0,0,0,0
O,no,15.999,0.00143,0.65,3.44,13.6181,8,8,8,2,2,4,0,0,0,0,0,0,0,0,0,0,0,0
F,no,18.998,0.0017,0.57,3.98,17.4228,10,9,9,2,2,5,0,0,0,0,0,0,0,0,0,0,0,0
Ne,no,20.18,0.0009,0.51,4.787,21.5645,10,10,10,2,2,6,0,0,0,0,0,0,0,0,0,0,0,0
Na,yes,22.99,0.971,2.2,0.93,5.1391,12,11,11,2,2,6,1,0,0,0,0,0,0,0,0,0,0,0
Mg,yes,24.305,1.74,1.7,1.31,7.6462,12,12,12,2,2,6,2,0,0,0,0,0,0,0,0,0,0,0
Al,yes,26.982,2.7,1.8,1.61,5.9858,14,13,13,2,2,6,2,1,0,0,0,0,0,0,0,0,0,0
Si,no,28.086,2.33,1.5,1.9,8.1517,14,14,14,2,2,6,2,2,0,0,0,0,0,0,0,0,0,0
P,no,30.974,1.82,1.2,2.19,10.4867,16,15,15,2,2,6,2,3,0,0,0,0,0,0,0,0,0,0
S,no,32.065,2.07,1.1,2.58,10.36,16,16,16,2,2,6,2,4,0,0,0,0,0,0,0,0,0,0
Cl,no,35.453,0.00321,0.97,3.16,12.9676,18,17,17,2,2,6,2,5,0,0,0,0,0,0,0,0,0,0
Ar,no,39.948,0.00178,0.88,3.242,15.7596,22,18,18,2,2,6,2,6,0,0,0,0,0,0,0,0,0,0
K,yes,39.098,0.862,2.8,0.82,4.3407,20,19,19,2,2,6,2,6,1,0,0,0,0,0,0,0,0,0
Ca,yes,40.078,1.54,2.2,1.0,6.1132,20,20,20,2,2,6,2,6,2,0,0,0,0,0,0,0,0,0
Sc,yes,44.956,2.99,2.1,1.36,6.5615,24,21,21,2,2,6,2,6,2,1,0,0,0,0,0,0,0,0
Ti,yes,47.867,4.54,2.0,1.54,6.8281,26,22,22,2,2,6,2,6,2,2,0,0,0,0,0,0,0,0
V,yes,50.942,6.11,1.9,1.63,6.7462,28,23,23,2,2,6,2,6,2,3,0,0,0,0,0,0,0,0
Cr,yes,51.996,7.15,1.9,1.66,6.7665,28,24,24,2,2,6,2,6,1,5,0,0,0,0,0,0,0,0
Mn,yes,54.938,7.44,1.8,1.55,7.434,30,25,25,2,2,6,2,6,2,5,0,0,0,0,0,0,0,0
Fe,yes,55.845,7.87,1.7,1.83,7.9024,30,26,26,2,2,6,2,6,2,6,0,0,0,0,0,0,0,0
Co,yes,58.933,8.86,1.7,1.88,7.881,32,27,27,2,2,6,2,6,2,7,0,0,0,0,0,0,0,0
Ni,yes,58.693,8.91,1.6,1.91,7.6398,31,28,28,2,2,6,2,6,2,8,0,0,0,0,0,0,0,0
Cu,yes,63.546,8.96,1.6,1.9,7.7264,35,29,29,2,2,6,2,6,1,10,0,0,0,0,0,0,0,0
Zn,yes,65.38,7.13,1.5,1.65,9.3942,35,30,30,2,2,6,2,6,2,10,0,0,0,0,0,0,0,0
Ga,yes,69.723,5.91,1.8,1.81,5.9993,39,31,31,2,2,6,2,6,2,10,1,0,0,0,0,0,0,0
Ge,no,72.64,5.32,1.5,2.01,7.8994,41,32,32,2,2,6,2,6,2,10,2,0,0,0,0,0,0,0
As,no,74.922,5.78,1.3,2.18,9.7886,42,33,33,2,2,6,2,6,2,10,3,0,0,0,0,0,0,0
Se,no,78.96,4.81,1.2,2.55,9.7524,45,34,34,2,2,6,2,6,2,10,4,0,0,0,0,0,0,0
Br,no,79.904,3.12,1.1,2.96,11.8138,45,35,35,2,2,6,2,6,2,10,5,0,0,0,0,0,0,0
Kr,no,83.798,0.00373,1.0,2.966,13.9996,48,36,36,2,2,6,2,6,2,10,6,0,0,0,0,0,0,0
Rb,yes,85.468,1.53,3.0,0.82,4.1771,48,37,37,2,2,6,2,6,2,10,6,1,0,0,0,0,0,0
Sr,yes,87.62,2.64,2.5,0.95,5.6949,50,38,38,2,2,6,2,6,2,10,6,2,0,0,0,0,0,0
Y,yes,88.906,4.47,2.3,1.22,6.2173,50,39,39,2,2,6,2,6,2,10,6,2,1,0,0,0,0,0
Zr,yes,91.224,6.51,2.2,1.33,6.6339,51,40,40,2,2,6,2,6,2,10,6,2,2,0,0,0,0,0
Nb,yes,92.906,8.57,2.1,1.6,6.7589,52,41,41,2,2,6,2,6,2,10,6,1,4,0,0,0,0,0
Mo,yes,95.96,10.2,2.0,2.16,7.0924,54,42,42,2,2,6,2,6,2,10,6,1,5,0,0,0,0,0
Tc,yes,98.0,11.5,2.0,1.9,7.28,55,43,43,2,2,6,2,6,2,10,6,2,5,0,0,0,0,0
Ru,yes,101.07,12.4,1.9,2.2,7.3605,57,44,44,2,2,6,2,6,2,10,6,1,7,0,0,0,0,0
Rh,yes,102.906,12.4,1.8,2.28,7.4589,58,45,45,2,2,6,2,6,2,10,6,1,8,0,0,0,0,0
Pd,yes,106.42,12.0,1.8,2.2,8.3369,60,46,46,2,2,6,2,6,2,10,6,0,10,0,0,0,0,0
Ag,yes,107.868,10.5,1.8,1.93,7.5762,61,47,47,2,2,6,2,6,2,10,6,1,10,0,0,0,0,0
Cd,yes,112.411,8.69,1.7,1.69,8.9938,64,48,48,2,2,6,2,6,2,10,6,2,10,0,0,0,0,0
In,yes,114.818,7.31,2.0,1.78,5.7864,66,49,49,2,2,6,2,6,2,10,6,2,10,1,0,0,0,0
Sn,yes,118.71,7.29,1.7,1.96,7.3439,69,50,50,2,2,6,2,6,2,10,6,2,10,2,0,0,0,0
Sb,no,121.76,6.69,1.5,2.05,8.6084,71,51,51,2,2,6,2,6,2,10,6,2,10,3,0,0,0,0
Te,no,127.6,6.23,1.4,2.1,9.0096,76,52,52,2,2,6,2,6,2,10,6,2,10,4,0,0,0,0
I,no,126.904,4.93,1.3,2.66,10.4513,74,53,53,2,2,6,2,6,2,10,6,2,10,5,0,0,0,0
Xe,no,131.293,0.00589,1.2,2.582,12.1298,77,54,54,2,2,6,2,6,2,10,6,2,10,6,0,0,0,0
Cs,yes,132.905,1.87,3.3,0.79,3.8939,78,55,55,2,2,6,2,6,2,10,6,2,10,6,1,0,0,0
Ba,yes,137.327,3.59,2.8,0.89,5.2117,81,56,56,2,2,6,2,6,2,10,6,2,10,6,2,0,0,0
La,yes,138.905,6.15,2.7,1.1,5.5769,82,57,57,2,2,6,2,6,2,10,6,2,10,6,2,0,1,0
Ce,yes,140.116,6.77,2.7,1.12,5.5387,82,58,58,2,2,6,2,6,2,10,6,2,10,6,2,1,1,0
Pr,yes,140.908,6.77,2.7,1.13,5.473,82,59,59,2,2,6,2,6,2,10,6,2,10,6,2,3,0,0
Nd,yes,144.242,7.01,2.6,1.14,5.525,84,60,60,2,2,6,2,6,2,10,6,2,10,6,2,4,0,0
Pm,yes,145.0,7.26,2.6,1.13,5.582,84,61,61,2,2,6,2,6,2,10,6,2,10,6,2,5,0,0
Sm,yes,150.36,7.52,2.6,1.17,5.6437,88,62,62,2,2,6,2,6,2,10,6,2,10,6,2,6,0,0
Eu,yes,151.964,5.24,2.6,1.2,5.6704,89,63,63,2,2,6,2,6,2,10,6,2,10,6,2,7,0,0
Gd,yes,157.25,7.9,2.5,1.2,6.1501,93,64,64,2,2,6,2,6,2,10,6,2,10,6,2,7,1,0
Tb,yes,158.925,8.23,2.5,1.2,5.8638,94,65,65,2,2,6,2,6,2,10,6,2,10,6,2,9,0,0
Dy,yes,162.5,8.55,2.5,1.22,5.9389,97,66,66,2,2,6,2,6,2,10,6,2,10,6,2,10,0,0
Ho,yes,164.93,8.8,2.5,1.23,6.0215,98,67,67,2,2,6,2,6,2,10,6,2,10,6,2,11,0,0
Er,yes,167.259,9.07,2.5,1.24,6.1077,99,68,68,2,2,6,2,6,2,10,6,2,10,6,2,12,0,0
Tm,yes,168.934,9.32,2.4,1.25,6.1843,100,69,69,2,2,6,2,6,2,10,6,2,10,6,2,13,0,0
Yb,yes,173.054,6.97,2.4,1.1,6.2542,103,70,70,2,2,6,2,6,2,10,6,2,10,6,2,14,0,0
Lu,yes,174.967,9.84,2.3,1.27,5.4259,104,71,71,2,2,6,2,6,2,10,6,2,10,6,2,14,1,0
Hf,yes,178.49,13.3,2.2,1.3,6.8251,106,72,72,2,2,6,2,6,2,10,6,2,10,6,2,14,2,0
Ta,yes,180.948,16.7,2.1,1.5,7.5496,108,73,73,2,2,6,2,6,2,10,6,2,10,6,2,14,3,0
W,yes,183.84,19.3,2.0,2.36,7.864,110,74,74,2,2,6,2,6,2,10,6,2,10,6,2,14,4,0
Re,yes,186.207,21.0,2.0,1.9,7.8335,111,75,75,2,2,6,2,6,2,10,6,2,10,6,2,14,5,0
Os,yes,190.23,22.6,1.9,2.2,8.4382,114,76,76,2,2,6,2,6,2,10,6,2,10,6,2,14,6,0
Ir,yes,192.217,22.6,1.9,2.2,8.967,115,77,77,2,2,6,2,6,2,10,6,2,10,6,2,14,7,0
Pt,yes,195.084,21.5,1.8,2.28,8.9587,117,78,78,2,2,6,2,6,2,10,6,2,10,6,1,14,9,0
Au,yes,196.967,19.3,1.8,2.54,9.2255,118,79,79,2,2,6,2,6,2,10,6,2,10,6,1,14,10,0
Hg,yes,200.59,13.5,1.8,2.0,10.4375,121,80,80,2,2,6,2,6,2,10,6,2,10,6,2,14,10,0
Tl,yes,204.383,11.9,2.1,2.04,6.1082,123,81,81,2,2,6,2,6,2,10,6,2,10,6,2,14,10,1
Pb,yes,207.2,11.3,1.8,2.33,7.4167,125,82,82,2,2,6,2,6,2,10,6,2,10,6,2,14,10,2
Bi,yes,208.98,9.81,1.6,2.02,7.2856,126,83,83,2,2,6,2,6,2,10,6,2,10,6,2,14,10,3
Po,no,210.0,9.32,1.5,2.0,8.417,126,84,84,2,2,6,2,6,2,10,6,2,10,6,2,14,10,4
At,no,210.0,7.0,1.4,2.2,9.3,125,85,85,2,2,6,2,6,2,10,6,2,10,6,2,14,10,5
Rn,no,222.0,0.00973,1.3,2.6,10.7485,136,86,86,2,2,6,2,6,2,10,6,2,10,6,2,14,10,6